HOOMD-blue 2.9.0 DOUBLE HPMC_MIXED TBB SSE SSE2 SSE3 
Compiled: 02/04/2020
Copyright (c) 2009-2019 The Regents of the University of Michigan.
-----
You are using HOOMD-blue. Please cite the following:
* J A Anderson, C D Lorenz, and A Travesset. "General purpose molecular dynamics
  simulations fully implemented on graphics processing units", Journal of
  Computational Physics 227 (2008) 5342--5359
* J Glaser, T D Nguyen, J A Anderson, P Lui, F Spiga, J A Millan, D C Morse, and
  S C Glotzer. "Strong scaling of general-purpose molecular dynamics simulations
  on GPUs", Computer Physics Communications 192 (2015) 97--107
-----
HOOMD-blue is running on the CPU
run.py:038  |      hoomd.init.read_snapshot(snapshot)
notice(2): Group "all" created containing 4 particles
run.py:040  |      nl = hoomd.md.nlist.tree()
-----
You are using tree neighbor lists. Please cite the following:
* M P Howard, J A Anderson, A Nikoubashman, S C Glotzer, and A Z
  Panagiotopoulos. "Efficient neighbor list calculation for molecular simulation
  of colloidal systems using graphics processing units", Computer Physics
  Communications 203 (2016) 45--52
* M P Howard, A Statt, F Madutsa, T M Truskett, and A Z Panagiotopoulos.
  "Quantized bounding volume hierarchies for neighbor search in molecular
  simulations on graphics processing units", Computational Materials Science 164
  (2019) 139--146
-----
run.py:042  |      lj = hoomd.md.pair.lj(r_cut=2.5, nlist=nl)
run.py:043  |      lj.pair_coeff.set('A','A',epsilon = 10.000,sigma = 0.3)
run.py:045  |      harmonic = hoomd.md.bond.harmonic()
dna0
run.py:048  |          harmonic.bond_coeff.set(f'dna{i}', k=10.0, r0=i); 
dna1
run.py:048  |          harmonic.bond_coeff.set(f'dna{i}', k=10.0, r0=i); 
dna2
run.py:048  |          harmonic.bond_coeff.set(f'dna{i}', k=10.0, r0=i); 
dna3
run.py:048  |          harmonic.bond_coeff.set(f'dna{i}', k=10.0, r0=i); 
dna4
run.py:048  |          harmonic.bond_coeff.set(f'dna{i}', k=10.0, r0=i); 
> /media/wtk23/Maxtor/OTHER/PROJECT_OVERFLOW/npr_automated/npr/TESTS/run.py(52)run_simulation()
-> hoomd.md.integrate.mode_standard(dt=0.002)
(Pdb) (Pdb) --KeyboardInterrupt--
(Pdb) (Pdb) (Pdb) --KeyboardInterrupt--
(Pdb) (Pdb) (Pdb) (Pdb) (Pdb) (Pdb) (Pdb) (Pdb) (Pdb) (Pdb) (Pdb) (Pdb) (Pdb) (Pdb) (Pdb) (Pdb) 